
    -----------------------------------------------------------------------
          Psi4: An Open-Source Ab Initio Electronic Structure Package
                               Psi4 1.8.2 release

                         Git: Rev {} zzzzzzz 


    D. G. A. Smith, L. A. Burns, A. C. Simmonett, R. M. Parrish,
    M. C. Schieber, R. Galvelis, P. Kraus, H. Kruse, R. Di Remigio,
    A. Alenaizan, A. M. James, S. Lehtola, J. P. Misiewicz, M. Scheurer,
    R. A. Shaw, J. B. Schriber, Y. Xie, Z. L. Glick, D. A. Sirianni,
    J. S. O'Brien, J. M. Waldrop, A. Kumar, E. G. Hohenstein,
    B. P. Pritchard, B. R. Brooks, H. F. Schaefer III, A. Yu. Sokolov,
    K. Patkowski, A. E. DePrince III, U. Bozkaya, R. A. King,
    F. A. Evangelista, J. M. Turney, T. D. Crawford, C. D. Sherrill,
    J. Chem. Phys. 152(18) 184108 (2020). https://doi.org/10.1063/5.0006002

                            Additional Code Authors
    E. T. Seidl, 2023-12-03:11:49:25,648 INFO     [psi4.driver.task_planner:283] PLANNING Atomic:  keywords={'SCF__D_CONVERGENCE': 1e-06, 'SCF__E_CONVERGENCE': 1e-06, 'SCF__INTS_TOLERANCE': 1e-12, 'SCF_TYPE': 'DF', 'function_kwargs': {}}
2023-12-03:11:49:25,650 INFO     [psi4.driver.driver:524] Compute energy(): method=b3lyp, basis=6-31g(d), molecule=default, nre=130.37877129863708
2023-12-03:11:49:27,166 INFO     [psi4.driver.driver:527] Return energy(): -158.45553394409393
2023-12-03:11:49:27,182 INFO     [psi4.driver.task_planner:283] PLANNING Atomic:  keywords={'SCF__D_CONVERGENCE': 1e-06, 'SCF__E_CONVERGENCE': 1e-06, 'SCF__INTS_TOLERANCE': 1e-12, 'SCF_TYPE': 'DF', 'function_kwargs': {}}
2023-12-03:11:49:27,184 INFO     [psi4.driver.driver:789] Compute properties(): method=hf, basis=6-311+g(2d,p), molecule=default, nre=130.37877129863708
2023-12-03:11:49:28,83 INFO     [psi4.driver.driver:792] Return properties(): -157.3398767945888
2023-12-03:11:49:48,937 INFO     [psi4.driver.task_planner:283] PLANNING Atomic:  keywords={'SCF__D_CONVERGENCE': 1e-06, 'SCF__E_CONVERGENCE': 1e-06, 'SCF__INTS_TOLERANCE': 1e-12, 'SCF_TYPE': 'DF', 'function_kwargs': {}}
2023-12-03:11:49:48,940 INFO     [psi4.driver.driver:524] Compute energy(): method=b3lyp, basis=6-31g(d), molecule=default, nre=187.19418441463966
2023-12-03:11:49:51,358 INFO     [psi4.driver.driver:527] Return energy(): -233.65658678486832
2023-12-03:11:49:51,383 INFO     [psi4.driver.task_planner:283] PLANNING Atomic:  keywords={'SCF__D_CONVERGENCE': 1e-06, 'SCF__E_CONVERGENCE': 1e-06, 'SCF__INTS_TOLERANCE': 1e-12, 'SCF_TYPE': 'DF', 'function_kwargs': {}}
2023-12-03:11:49:51,385 INFO     [psi4.driver.driver:789] Compute properties(): method=hf, basis=6-311+g(2d,p), molecule=default, nre=187.19418441463966
2023-12-03:11:49:52,819 INFO     [psi4.driver.driver:792] Return properties(): -232.2139489564035
==

    Molecular point group: c1
    Full point group: C1

    Geometry (in Angstrom), charge = 0, multiplicity = 1:

       Center              X                  Y                   Z               Mass       
    ------------   -----------------  -----------------  -----------------  -----------------
         C            1.930419989752    -0.180503406550    -0.015334301054    12.000000000000
         C            0.569002060887     0.503068178053    -0.101843484757    12.000000000000
         C           -0.569002094464    -0.503068282801     0.101845211509    12.000000000000
         C           -1.930419948706     0.180503283779     0.015332628538    12.000000000000
         H            2.064627719683    -0.648199743308     0.983342265858     1.007825032230
         H            2.021257736077    -0.960419116060    -0.801200852225     1.007825032230
         H            2.733907366362     0.570892946413    -0.166323045801     1.007825032230
         H            0.513826849339     1.294495326853     0.677273893970     1.007825032230
         H            0.470638823301     0.983588370781    -1.099766408875     1.007825032230
         H           -0.470640582649    -0.983586340344     1.099769139433     1.007825032230
         H           -0.513825894830    -1.294496373329    -0.677270486785     1.007825032230
         H           -2.064625493373     0.648198683404    -0.983344480961     1.007825032230
         H           -2.733908421000    -0.570892350621     0.166322830078     1.007825032230
         H           -2.021258191846     0.960421305241     0.801196499528     1.007825032230

  Running in c1 symmetry.

  Rotational constants: A =      0.75429  B =      0.12324  C =      0.11550 [cm^-1]
  Rotational constants: A =  22613.05911  B =   3694.75465  C =   3462.71537 [MHz]
  Nuclear repulsion =  130.378771298637076

  Charge       = 0
  Multiplicity = 1
  Electrons    = 34
  Nalpha       = 17
  Nbeta        = 17

  ==> Algorithm <==

  SCF Algorithm Type is DF.
  DIIS enabled.
  MOM disabled.
  Fractional occupation disabled.
  Guess Type is SAD.
  Energy threshold   = 1.00e-06
  Density threshold  = 1.00e-06
  Integral threshold = 1.00e-12

  ==> Primary Basis <==

  Basis Set: 6-31G(D)
    Blend: 6-31G(D)
    Number of shells: 44
    Number of basis functions: 80
    Number of Cartesian functions: 80
    Spherical Harmonics?: false
    Max angular momentum: 2

  ==> DFT Potential <==

   => LibXC <=

    Version 6.2.2
    S. Lehtola, C. Steigemann, M. J.T. Oliveira, and M. A.L. Marques.,  SoftwareX 7, 1–5 (2018) (10.1016/j.softx.2017.11.002)

   => Composite Functional: B3LYP <= 

    B3LYP Hyb-GGA Exchange-Correlation Functional

    P. J. Stephens, F. J. Devlin, C. F. Chabalowski, and M. J. Frisch.,  J. Phys. Chem. 98, 11623 (1994) (10.1021/j100096a001)

    Deriv               =              1
    GGA                 =           TRUE
    Meta                =          FALSE

    Exchange Hybrid     =           TRUE
    MP2 Hybrid          =          FALSE

   => Exchange Functionals <=

    0.0800   Slater exchange
    0.7200         Becke 88

   => Exact (HF) Exchange <=

    0.2000               HF 

   => Correlation Functionals <=

    0.1900   Vosko, Wilk & Nusair (VWN5_RPA)
    0.8100   Lee, Yang & Parr

   => LibXC Density Thresholds  <==

    XC_HYB_GGA_XC_B3LYP:  1.00E-15 

   => Molecular Quadrature <=

    Radial Scheme          =       TREUTLER
    Pruning Scheme         =           NONE
    Nuclear Scheme         =       TREUTLER

    Blocking Scheme        =         OCTREE
    BS radius alpha        =              1
    Pruning alpha          =              1
    Radial Points          =             75
    Spherical Points       =            302
    Total Points           =         297652
    Total Blocks           =           2278
    Max Points             =            256
    Max Functions          =             79
    Weights Tolerance      =       1.00E-15

   => Loading Basis Set <=

    Name: (6-31G(D) AUX)
    Role: JKFIT
    Keyword: DF_BASIS_SCF
    atoms 1-4  entry C          line   121 file /Users/hiroto/anaconda3/envs/p4env/share/psi4/basis/cc-pvdz-jkfit.gbs 
    atoms 5-14 entry H          line    51 file /Users/hiroto/anaconda3/envs/p4env/share/psi4/basis/cc-pvdz-jkfit.gbs 

  ==> Integral Setup <==

  DFHelper Memory: AOs need 0.031 GiB; user supplied 0.109 GiB. 
  Using in-core AOs.

  ==> MemDFJK: Density-Fitted J/K Matrices <==

    J tasked:                   Yes
    K tasked:                   Yes
    wK tasked:                   No
    OpenMP threads:               4
    Memory [MiB]:               111
    Algorithm:                 Core
    Schwarz Cutoff:           1E-12
    Mask sparsity (%):       0.8750
    Fitting Condition:        1E-10

   => Auxiliary Basis Set <=

  Basis Set: (6-31G(D) AUX)
    Blend: CC-PVDZ-JKFIT
    Number of shells: 186
    Number of basis functions: 574
    Number of Cartesian functions: 574
    Spherical Harmonics?: false
    Max angular momentum: 3

  Cached 100.0% of DFT collocation blocks in 0.590 [GiB].

  Minimum eigenvalue in the overlap matrix is 4.5221815764E-03.
  Reciprocal condition number of the overlap matrix is 6.3234543374E-04.
    Using symmetric orthogonalization.

  ==> Pre-Iterations <==

  SCF Guess: Superposition of Atomic Densities via on-the-fly atomic UHF (no occupation information).

   -------------------------
    Irrep   Nso     Nmo    
   -------------------------
     A         80      80 
   -------------------------
    Total      80      80
   -------------------------

  ==> Iterations <==

                           Total Energy        Delta E     RMS |[F,P]|

   @DF-RKS iter SAD:  -157.68534396408273   -1.57685e+02   0.00000e+00 
   @DF-RKS iter   1:  -158.04451977543036   -3.59176e-01   1.08854e-02 ADIIS/DIIS
   @DF-RKS iter   2:  -157.85700836433307    1.87511e-01   1.28973e-02 ADIIS/DIIS
   @DF-RKS iter   3:  -158.45455448030268   -5.97546e-01   5.56204e-04 ADIIS/DIIS
   @DF-RKS iter   4:  -158.45504014648759   -4.85666e-04   3.98478e-04 ADIIS/DIIS
   @DF-RKS iter   5:  -158.45552526678463   -4.85120e-04   5.31578e-05 DIIS
   @DF-RKS iter   6:  -158.45553380644844   -8.53966e-06   6.33719e-06 DIIS
   @DF-RKS iter   7:  -158.45553394409393   -1.37645e-07   8.95642e-07 DIIS
  Energy and wave function converged.


  ==> Post-Iterations <==

   Electrons on quadrature grid:
      Ntotal   =   33.9999138090 ; deviation = -8.619e-05 

    Orbital Energies [Eh]
    ---------------------

    Doubly Occupied:                                                      

       1A    -10.177893     2A    -10.177680     3A    -10.172991  
       4A    -10.172988     5A     -0.788756     6A     -0.716695  
       7A     -0.617824     8A     -0.566650     9A     -0.466174  
      10A     -0.421138    11A     -0.409513    12A     -0.407399  
      13A     -0.361030    14A     -0.345708    15A     -0.326919  
      16A     -0.322095    17A     -0.311573  

    Virtual:                                                              

      18A      0.090798    19A      0.117344    20A      0.128922  
      21A      0.140276    22A      0.166436    23A      0.183596  
      24A      0.183842    25A      0.184841    26A      0.195900  
      27A      0.197810    28A      0.250785    29A      0.253998  
      30A      0.258247    31A      0.504003    32A      0.505152  
      33A      0.553596    34A      0.564195    35A      0.565863  
      36A      0.624300    37A      0.655713    38A      0.660971  
      39A      0.689903    40A      0.760204    41A      0.792490  
      42A      0.847271    43A      0.851271    44A      0.869336  
      45A      0.896439    46A      0.905956    47A      0.922601  
      48A      0.923117    49A      0.941630    50A      0.952494  
      51A      0.977136    52A      1.019390    53A      1.045861  
      54A      1.371953    55A      1.439057    56A      1.445608  
      57A      1.446911    58A      1.634835    59A      1.683953  
      60A      1.848275    61A      1.896606    62A      1.905041  
      63A      1.961993    64A      1.972153    65A      2.022789  
      66A      2.062364    67A      2.176744    68A      2.235858  
      69A      2.236257    70A      2.275351    71A      2.376730  
      72A      2.376791    73A      2.399981    74A      2.532582  
      75A      2.667803    76A      2.762260    77A      4.129431  
      78A      4.236950    79A      4.353460    80A      4.511312  

    Final Occupation by Irrep:
              A 
    DOCC [    17 ]
    NA   [    17 ]
    NB   [    17 ]

  @DF-RKS Final Energy:  -158.45553394409393

   => Energetics <=

    Nuclear Repulsion Energy =            130.3787712986370764
    One-Electron Energy =                -469.3567011218010521
    Two-Electron Energy =                 201.0854109235793032
    DFT Exchange-Correlation Energy =     -20.5630150445092426
    Empirical Dispersion Energy =           0.0000000000000000
    VV10 Nonlocal Energy =                  0.0000000000000000
    Total Energy =                       -158.4555339440939292

Computation Completed


Properties will be evaluated at   0.000000,   0.000000,   0.000000 [a0]

Properties computed using the SCF density matrix


 Multipole Moments:

 ------------------------------------------------------------------------------------
     Multipole            Electronic (a.u.)      Nuclear  (a.u.)        Total (a.u.)
 ------------------------------------------------------------------------------------

 L = 1.  Multiply by 2.5417464519 to convert [e a0] to [Debye]
 Dipole X            :          0.0000005           -0.0000001            0.0000004
 Dipole Y            :         -0.0000023            0.0000025            0.0000002
 Dipole Z            :          0.0000007           -0.0000006            0.0000001
 Magnitude           :                                                    0.0000005

 ------------------------------------------------------------------------------------

*** tstop() called on hirotonoMacBook-Air.local at Sun Dec  3 11:49:27 2023
Module time:
	user time   =       3.76 seconds =       0.06 minutes
	system time =       0.35 seconds =       0.01 minutes
	total time  =          2 seconds =       0.03 minutes
Total time:
	user time   =       7.68 seconds =       0.13 minutes
	system time =       0.77 seconds =       0.01 minutes
	total time  =       1062 seconds =      17.70 minutes

*** tstart() called on hirotonoMacBook-Air.local
*** at Sun Dec  3 11:49:27 2023

   => Libint2 <=

    Primary   basis highest AM E, G, H:  5, 4, 3
    Auxiliary basis highest AM E, G, H:  6, 5, 4
    Onebody   basis highest AM E, G, H:  6, 5, 4
    Solid Harmonics ordering:            gaussian
   => Loading Basis Set <=

    Name: 6-311+G(2D,P)
    Role: ORBITAL
    Keyword: BASIS
    atoms 1-4  entry C          line   143 file /Users/hiroto/anaconda3/envs/p4env/share/psi4/basis/6-311pg_2d_p_.gbs 
    atoms 5-14 entry H          line    50 file /Users/hiroto/anaconda3/envs/p4env/share/psi4/basis/6-311pg_2d_p_.gbs 


         ---------------------------------------------------------
                                   SCF
               by Justin Turney, Rob Parrish, Andy Simmonett
                          and Daniel G. A. Smith
                              RHF Reference
                        4 Threads,    953 MiB Core
         ---------------------------------------------------------

  ==> Geometry <==

    Molecular point group: c1
    Full point group: C1

    Geometry (in Angstrom), charge = 0, multiplicity = 1:

       Center              X                  Y                   Z               Mass       
    ------------   -----------------  -----------------  -----------------  -----------------
         C            1.930419989752    -0.180503406550    -0.015334301054    12.000000000000
         C            0.569002060887     0.503068178053    -0.101843484757    12.000000000000
         C           -0.569002094464    -0.503068282801     0.101845211509    12.000000000000
         C           -1.930419948706     0.180503283779     0.015332628538    12.000000000000
         H            2.064627719683    -0.648199743308     0.983342265858     1.007825032230
         H            2.021257736077    -0.960419116060    -0.801200852225     1.007825032230
         H            2.733907366362     0.570892946413    -0.166323045801     1.007825032230
         H            0.513826849339     1.294495326853     0.677273893970     1.007825032230
         H            0.470638823301     0.983588370781    -1.099766408875     1.007825032230
         H           -0.470640582649    -0.983586340344     1.099769139433     1.007825032230
         H           -0.513825894830    -1.294496373329    -0.677270486785     1.007825032230
         H           -2.064625493373     0.648198683404    -0.983344480961     1.007825032230
         H           -2.733908421000    -0.570892350621     0.166322830078     1.007825032230
         H           -2.021258191846     0.960421305241     0.801196499528     1.007825032230

  Running in c1 symmetry.

  Rotational constants: A =      0.75429  B =      0.12324  C =      0.11550 [cm^-1]
  Rotational constants: A =  22613.05911  B =   3694.75465  C =   3462.71537 [MHz]
  Nuclear repulsion =  130.378771298637076

  Charge       = 0
  Multiplicity = 1
  Electrons    = 34
  Nalpha       = 17
  Nbeta        = 17

  ==> Algorithm <==

  SCF Algorithm Type is DF.
  DIIS enabled.
  MOM disabled.
  Fractional occupation disabled.
  Guess Type is SAD.
  Energy threshold   = 1.00e-06
  Density threshold  = 1.00e-06
  Integral threshold = 1.00e-12

  ==> Primary Basis <==

  Basis Set: 6-311+G(2D,P)
    Blend: 6-311+G(2D,P)
    Number of shells: 84
    Number of basis functions: 168
    Number of Cartesian functions: 176
    Spherical Harmonics?: true
    Max angular momentum: 2

   => Loading Basis Set <=

    Name: (6-311+G(2D,P) AUX)
    Role: JKFIT
    Keyword: DF_BASIS_SCF
    atoms 1-4  entry C          line   200 file /Users/hiroto/anaconda3/envs/p4env/share/psi4/basis/heavy-aug-cc-pvtz-jkfit.gbs 
    atoms 5-14 entry H          line   116 file /Users/hiroto/anaconda3/envs/p4env/share/psi4/basis/heavy-aug-cc-pvtz-jkfit.gbs 

  ==> Integral Setup <==

  DFHelper Memory: AOs need 0.157 GiB; user supplied 0.698 GiB. 
  Using in-core AOs.

  ==> MemDFJK: Density-Fitted J/K Matrices <==

    J tasked:                   Yes
    K tasked:                   Yes
    wK tasked:                   No
    OpenMP threads:               4
    Memory [MiB]:               715
    Algorithm:                 Core
    Schwarz Cutoff:           1E-12
    Mask sparsity (%):       2.7778
    Fitting Condition:        1E-10

   => Auxiliary Basis Set <=

  Basis Set: (6-311+G(2D,P) AUX)
    Blend: HEAVY-AUG-CC-PVTZ-JKFIT
    Number of shells: 220
    Number of basis functions: 716
    Number of Cartesian functions: 874
    Spherical Harmonics?: true
    Max angular momentum: 4

  Minimum eigenvalue in the overlap matrix is 2.4675480325E-05.
  Reciprocal condition number of the overlap matrix is 2.2957447159E-06.
    Using symmetric orthogonalization.

  ==> Pre-Iterations <==

  SCF Guess: Superposition of Atomic Densities via on-the-fly atomic UHF (no occupation information).

   -------------------------
    Irrep   Nso     Nmo    
   -------------------------
     A        168     168 
   -------------------------
    Total     168     168
   -------------------------

  ==> Iterations <==

                           Total Energy        Delta E     RMS |[F,P]|

   @DF-RHF iter SAD:  -156.68919992525309   -1.56689e+02   0.00000e+00 
   @DF-RHF iter   1:  -157.13618256070180   -4.46983e-01   3.36163e-03 ADIIS/DIIS
   @DF-RHF iter   2:  -157.29965844610365   -1.63476e-01   1.58861e-03 ADIIS/DIIS
   @DF-RHF iter   3:  -157.33738601333093   -3.77276e-02   2.81451e-04 ADIIS/DIIS
   @DF-RHF iter   4:  -157.33978262879489   -2.39662e-03   6.38358e-05 DIIS
   @DF-RHF iter   5:  -157.33986945583644   -8.68270e-05   1.65806e-05 DIIS
   @DF-RHF iter   6:  -157.33987663629574   -7.18046e-06   2.01192e-06 DIIS
   @DF-RHF iter   7:  -157.33987679458880   -1.58293e-07   3.57213e-07 DIIS
  Energy and wave function converged.


  ==> Post-Iterations <==

    Orbital Energies [Eh]
    ---------------------

    Doubly Occupied:                                                      

       1A    -11.219370     2A    -11.218768     3A    -11.214811  
       4A    -11.214804     5A     -1.068776     6A     -0.976571  
       7A     -0.849762     8A     -0.779459     9A     -0.638349  
      10A     -0.582479    11A     -0.569030    12A     -0.566013  
      13A     -0.509503    14A     -0.491541    15A     -0.466799  
      16A     -0.463009    17A     -0.449460  

    Virtual:                                                              

      18A      0.076437    19A      0.083333    20A      0.090167  
      21A      0.097485    22A      0.113781    23A      0.121267  
      24A      0.124106    25A      0.133344    26A      0.143712  
      27A      0.145993    28A      0.158733    29A      0.164682  
      30A      0.184490    31A      0.214745    32A      0.227636  
      33A      0.256784    34A      0.272739    35A      0.307876  
      36A      0.308647    37A      0.308740    38A      0.319911  
      39A      0.335784    40A      0.340609    41A      0.349049  
      42A      0.392272    43A      0.395185    44A      0.406715  
      45A      0.432085    46A      0.433837    47A      0.522849  
      48A      0.545575    49A      0.555591    50A      0.557313  
      51A      0.583183    52A      0.603976    53A      0.668233  
      54A      0.687001    55A      0.688252    56A      0.696156  
      57A      0.763944    58A      0.782125    59A      0.797910  
      60A      0.801224    61A      0.822178    62A      0.829588  
      63A      0.844287    64A      0.859852    65A      0.884791  
      66A      0.902823    67A      0.910337    68A      0.913568  
      69A      0.916955    70A      0.933793    71A      0.955470  
      72A      1.062911    73A      1.078373    74A      1.089931  
      75A      1.122726    76A      1.129615    77A      1.139835  
      78A      1.209918    79A      1.221824    80A      1.274743  
      81A      1.293042    82A      1.403043    83A      1.427739  
      84A      1.431616    85A      1.438684    86A      1.464553  
      87A      1.498406    88A      1.522357    89A      1.576512  
      90A      1.596135    91A      1.632268    92A      1.716685  
      93A      1.718264    94A      1.724225    95A      1.939647  
      96A      1.960175    97A      1.982763    98A      1.994798  
      99A      2.023895   100A      2.025956   101A      2.112546  
     102A      2.211705   103A      2.218734   104A      2.261131  
     105A      2.307445   106A      2.448843   107A      2.471002  
     108A      2.477932   109A      2.525554   110A      2.547069  
     111A      2.550720   112A      2.597879   113A      2.607555  
     114A      2.608418   115A      2.647740   116A      2.648539  
     117A      2.655118   118A      2.693900   119A      2.710795  
     120A      2.735052   121A      2.762908   122A      2.819514  
     123A      2.968417   124A      3.008354   125A      3.009425  
     126A      3.019141   127A      3.021920   128A      3.044469  
     129A      3.172306   130A      3.208527   131A      3.213274  
     132A      3.241349   133A      3.310200   134A      3.547859  
     135A      3.618116   136A      3.624989   137A      3.634639  
     138A      3.651452   139A      3.707665   140A      3.720372  
     141A      3.749418   142A      3.769236   143A      3.777203  
     144A      3.849210   145A      3.874407   146A      3.916135  
     147A      3.943301   148A      3.943903   149A      3.959460  
     150A      3.981576   151A      3.982490   152A      4.018828  
     153A      4.036443   154A      4.154248   155A      4.244877  
     156A      4.563743   157A      4.588268   158A      4.600744  
     159A      4.603140   160A      4.603799   161A      4.679506  
     162A      4.772943   163A      4.917537   164A      4.972146  
     165A     25.022481   166A     25.089043   167A     25.105006  
     168A     25.195585  

    Final Occupation by Irrep:
              A 
    DOCC [    17 ]
    NA   [    17 ]
    NB   [    17 ]

  @DF-RHF Final Energy:  -157.33987679458880

   => Energetics <=

    Nuclear Repulsion Energy =            130.3787712986370764
    One-Electron Energy =                -468.8803134863401283
    Two-Electron Energy =                 181.1616653931142764
    Total Energy =                       -157.3398767945888039

Computation Completed


Properties will be evaluated at   0.000000,   0.000000,   0.000000 [a0]

Properties computed using the HF density matrix


 Multipole Moments:

 ------------------------------------------------------------------------------------
     Multipole            Electronic (a.u.)      Nuclear  (a.u.)        Total (a.u.)
 ------------------------------------------------------------------------------------

 L = 1.  Multiply by 2.5417464519 to convert [e a0] to [Debye]
 Dipole X            :          0.0000004           -0.0000001            0.0000003
 Dipole Y            :         -0.0000023            0.0000025            0.0000002
 Dipole Z            :          0.0000007           -0.0000006            0.0000001
 Magnitude           :                                                    0.0000004

 L = 2.  Multiply by 1.3450342976 to convert [e a0^2] to [Debye ang]
 Quadrupole XX       :       -312.6033818          290.0393582          -22.5640235
 Quadrupole XY       :          7.2844287           -6.8844375            0.3999912
 Quadrupole XZ       :          5.2484204           -5.2765769           -0.0281565
 Quadrupole YY       :        -64.6423529           43.0356580          -21.6066948
 Quadrupole YZ       :          3.3997064           -3.2758139            0.1238925
 Quadrupole ZZ       :        -44.9214006           24.0573919          -20.8640088
 Traceless XX        :       -171.8810033          170.9952222           -0.8857812
 Traceless YY        :         76.0800255          -76.0084780            0.0715475
 Traceless ZZ        :         95.8009778          -94.9867442            0.8142336

 ------------------------------------------------------------------------------------

*** tstop() called on hirotonoMacBook-Air.local at Sun Dec  3 11:49:28 2023
Module time:
	user time   =       1.76 seconds =       0.03 minutes
	system time =       0.12 seconds =       0.00 minutes
	total time  =          1 seconds =       0.02 minutes
Total time:
	user time   =       9.46 seconds =       0.16 minutes
	system time =       0.89 seconds =       0.01 minutes
	total time  =       1063 seconds =      17.72 minutes
